 Q-Chem 5.3 (devel), Q-Chem, Inc., Pleasanton, CA (2020)
 Q-Chem 5.3.0 for Intel X86 EM64T Linux

User input:
--------------------------------------------------------------
$molecule
0	1
N	 0.0	 0.0	 0.548756750
N	 0.0	 0.0	 -0.548756750
$end

$rem
JOBTYPE	 sp
METHOD	 eom-ccsd
BASIS	 gen
GUI	 2
EA_STATES	[0,0,10,0,0,0,0,0]
COMPLEX_CCMAN	 1
MEM_TOTAL	 100000
XC_GRID  000099000590
$end

$complex_ccman
PROJ_CAP 3
PROJ_PROP 1
NSTEPS 150
ETA_STEP 10
CAP_TYPE	 1
CAP_ETA	10
CAP_X	2000
CAP_Y	2000
CAP_Z	3000
$end

$basis
N	0
S   10   1.00
      1.142000D+04           5.230000D-04
      1.712000D+03           4.045000D-03
      3.893000D+02           2.077500D-02
      1.100000D+02           8.072700D-02
      3.557000D+01           2.330740D-01
      1.254000D+01           4.335010D-01
      4.644000D+00           3.474720D-01
      1.293000D+00           4.126200D-02
      5.118000D-01          -8.508000D-03
      1.787000D-01           2.384000D-03
S   10   1.00
      1.142000D+04          -1.150000D-04
      1.712000D+03          -8.950000D-04
      3.893000D+02          -4.624000D-03
      1.100000D+02          -1.852800D-02
      3.557000D+01          -5.733900D-02
      1.254000D+01          -1.320760D-01
      4.644000D+00          -1.725100D-01
      1.293000D+00           1.518140D-01
      5.118000D-01           5.999440D-01
      1.787000D-01           3.874620D-01
S   1   1.00
      1.293000D+00           1.000000D+00
S   1   1.00
      1.787000D-01           1.000000D+00
S   1   1.00
      0.0576000              1.0000000
P   5   1.00
      2.663000D+01           1.467000D-02
      5.948000D+00           9.176400D-02
      1.742000D+00           2.986830D-01
      5.550000D-01           4.984870D-01
      1.725000D-01           3.370230D-01
P   1   1.00
      5.550000D-01           1.000000D+00
P   1   1.00
      1.725000D-01           1.000000D+00
P   1   1.00
      0.0491000              1.0000000
D   1   1.00
      1.654000D+00           1.000000D+00
D   1   1.00
      4.690000D-01           1.000000D+00
D   1   1.00
      0.1510000              1.0000000
F   1   1.00
      1.093000D+00           1.0000000
F   1   1.00
      0.3640000              1.0000000
S   1   1.00
      0.0288000              1.0000000
S   1   1.00
      0.0144000              1.0000000
S   1   1.00
      0.0072000              1.0000000
P   1   1.00
      0.0245500              1.0000000
P   1   1.00
      0.0122750              1.0000000
P   1   1.00
      0.0061375              1.0000000
D   1   1.00
      0.0755000              1.0000000
D   1   1.00
      0.0377500              1.0000000
D   1   1.00
      0.0188750              1.0000000
****
$end
--------------------------------------------------------------

             Standard Nuclear Orientation (Angstroms)
    I     Atom           X                Y                Z
 ----------------------------------------------------------------
    1      N       0.0000000000     0.0000000000     0.5487567500
    2      N       0.0000000000     0.0000000000    -0.5487567500
 ----------------------------------------------------------------

   12    -108.9849375894      1.56e-09  Convergence criterion met
 Total energy in the final basis set =     -108.9849375894
 CCSD total energy          =             (-109.36230684 , 0.00000000)
           Solving for CS/CAP-EOMEA-CCSD B2g transitions.
 CS/CAP-EOMEA-CCSD transition 1/B2g
 Total energy = (-109.34619013 , 0.00000000) a.u.  Excitation energy =  (0.4386 , 0.0000) eV.
 CS/CAP-EOMEA-CCSD transition 2/B2g
 Total energy = (-109.31818299 , 0.00000000) a.u.  Excitation energy =  (1.2007 , 0.0000) eV.
 CS/CAP-EOMEA-CCSD transition 3/B2g
 Total energy = (-109.28006916 , 0.00000000) a.u.  Excitation energy =  (2.2378 , 0.0000) eV.
 CS/CAP-EOMEA-CCSD transition 4/B2g
 Total energy = (-109.25513933 , 0.00000000) a.u.  Excitation energy =  (2.9162 , 0.0000) eV.
 CS/CAP-EOMEA-CCSD transition 5/B2g
 Total energy = (-109.20684077 , 0.00000000) a.u.  Excitation energy =  (4.2304 , 0.0000) eV.
 CS/CAP-EOMEA-CCSD transition 6/B2g
 Total energy = (-109.14510272 , 0.00000000) a.u.  Excitation energy =  (5.9104 , 0.0000) eV.
 CS/CAP-EOMEA-CCSD transition 7/B2g
 Total energy = (-109.04215140 , 0.00000000) a.u.  Excitation energy =  (8.7119 , 0.0000) eV.
 CS/CAP-EOMEA-CCSD transition 8/B2g
 Total energy = (-108.99378898 , 0.00000000) a.u.  Excitation energy =  (10.0279 , 0.0000) eV.
 CS/CAP-EOMEA-CCSD transition 9/B2g
 Total energy = (-108.99370950 , 0.00000000) a.u.  Excitation energy =  (10.0300 , 0.0000) eV.
 CS/CAP-EOMEA-CCSD transition 10/B2g
 Total energy = (-108.96486573 , 0.00000000) a.u.  Excitation energy =  (10.8149 , 0.0000) eV.
 Excited state properties for EOMEA-CCSD transition 1/B2g
 Excited state properties for EOMEA-CCSD transition 2/B2g
 Excited state properties for EOMEA-CCSD transition 3/B2g
 Excited state properties for EOMEA-CCSD transition 4/B2g
 Excited state properties for EOMEA-CCSD transition 5/B2g
 Excited state properties for EOMEA-CCSD transition 6/B2g
 Excited state properties for EOMEA-CCSD transition 7/B2g
 Excited state properties for EOMEA-CCSD transition 8/B2g
 Excited state properties for EOMEA-CCSD transition 9/B2g
 Excited state properties for EOMEA-CCSD transition 10/B2g
Solving for CAP-EOM-CCSD B2g transitions.

             Orbital Energies (a.u.) and Symmetries
 --------------------------------------------------------------

 Alpha MOs, Restricted
 -- Occupied --
-15.685 -15.682  -1.472  -0.780  -0.634  -0.614  -0.614
  1 Ag    1 B1u   2 Ag    2 B1u   3 Ag    1 B3u   1 B2u

 Beta MOs, Restricted
 -- Occupied --
-15.685 -15.682  -1.472  -0.780  -0.634  -0.614  -0.614
  1 Ag    1 B1u   2 Ag    2 B1u   3 Ag    1 B3u   1 B2u

          Ground-State Mulliken Net Atomic Charges

     Atom                 Charge (a.u.)
  ----------------------------------------
      1 N                    -0.000000
      2 N                     0.000000
  ----------------------------------------
  Sum of atomic charges =     0.000000

                    Cartesian Multipole Moments
 -----------------------------------------------------------------
    Charge (ESU x 10^10)
                -0.0000
    Dipole Moment (Debye)
         X       0.0000      Y       0.0000      Z       0.0000
       Tot       0.0000
    Quadrupole Moments (Debye-Ang)
        XX     -10.3981     XY       0.0000     YY     -10.3981
        XZ       0.0000     YZ      -0.0000     ZZ     -11.6406

 Total job time:  1958.19s(wall), 14654.57s(cpu)
        *  Thank you very much for using Q-Chem.  Have a nice day.  *
