 Q-Chem 5.3 (devel), Q-Chem, Inc., Pleasanton, CA (2020)
 Q-Chem 5.3.2 for Intel X86 EM64T Linux

User input:
--------------------------------------------------------------
$molecule
0	1
N	 0.0	 0.0	 0.548756750
N	 0.0	 0.0	 -0.548756750
Gh	 0.0	 0.0	 0.0
$end

$rem
JOBTYPE	 sp
METHOD	 eom-ccsd
BASIS	 gen
GUI	 2
EA_STATES	[0,0,10,0,10,0,0,0]
COMPLEX_CCMAN	 1
MEM_TOTAL	 100000
XC_GRID  000099000590
$end

$complex_ccman
PROJ_CAP 3
NSTEPS 1
ETA_STEP 50
CAP_TYPE	 1
CAP_ETA	50
CAP_X	2760
CAP_Y	2760
CAP_Z	4880
$end

$basis
N	0
aug-cc-pvtz
****
Gh	0
S   1   1.00
      0.0288000              1.0000000
S   1   1.00
      0.0144000              1.0000000
S   1   1.00
      0.0072000              1.0000000
P   1   1.00
      0.0245500              1.0000000
P   1   1.00
      0.0122750              1.0000000
P   1   1.00
      0.0061375              1.0000000
D   1   1.00
      0.0755000              1.0000000
D   1   1.00
      0.0377500              1.0000000
D   1   1.00
      0.0188750              1.0000000
****
$end
--------------------------------------------------------------

             Standard Nuclear Orientation (Angstroms)
    I     Atom           X                Y                Z
 ----------------------------------------------------------------
    1      N       0.0000000000     0.0000000000     0.5487567500
    2      N       0.0000000000     0.0000000000    -0.5487567500
    3      GH      0.0000000000     0.0000000000     0.0000000000
 ----------------------------------------------------------------

   12    -108.9848674703      1.19e-09  Convergence criterion met
 Total energy in the final basis set =     -108.9848674703
 CCSD total energy          = -109.36195558
        Solving for EOMEA-CCSD/MP2 B2g transitions.
 EOMEA transition 1/B2g
 Total energy = -109.31353936 a.u.  Excitation energy = 1.3175 eV.
 EOMEA transition 2/B2g
 Total energy = -109.26810782 a.u.  Excitation energy = 2.5537 eV.
 EOMEA transition 3/B2g
 Total energy = -109.21019448 a.u.  Excitation energy = 4.1296 eV.
 EOMEA transition 4/B2g
 Total energy = -109.06263904 a.u.  Excitation energy = 8.1448 eV.
 EOMEA transition 5/B2g
 Total energy = -108.99340824 a.u.  Excitation energy = 10.0287 eV.
 EOMEA transition 6/B2g
 Total energy = -108.99332577 a.u.  Excitation energy = 10.0309 eV.
 EOMEA transition 7/B2g
 Total energy = -108.96489909 a.u.  Excitation energy = 10.8045 eV.
 EOMEA transition 8/B2g
 Total energy = -108.96408670 a.u.  Excitation energy = 10.8266 eV.
 EOMEA transition 9/B2g
 Total energy = -108.94450265 a.u.  Excitation energy = 11.3595 eV.
 EOMEA transition 10/B2g
 Total energy = -108.94441941 a.u.  Excitation energy = 11.3617 eV.
 Excited state properties for  EOMEA-CCSD transition 1/B2g
 Excited state properties for  EOMEA-CCSD transition 2/B2g
 Excited state properties for  EOMEA-CCSD transition 3/B2g
 Excited state properties for  EOMEA-CCSD transition 4/B2g
 Excited state properties for  EOMEA-CCSD transition 5/B2g
 Excited state properties for  EOMEA-CCSD transition 6/B2g
 Excited state properties for  EOMEA-CCSD transition 7/B2g
 Excited state properties for  EOMEA-CCSD transition 8/B2g
 Excited state properties for  EOMEA-CCSD transition 9/B2g
 Excited state properties for  EOMEA-CCSD transition 10/B2g
        Solving for EOMEA-CCSD/MP2 Au transitions.
 EOMEA transition 1/Au
 Total energy = -108.95188466 a.u.  Excitation energy = 11.1586 eV.
 EOMEA transition 2/Au
 Total energy = -108.95180475 a.u.  Excitation energy = 11.1608 eV.
 EOMEA transition 3/Au
 Total energy = -108.94740540 a.u.  Excitation energy = 11.2805 eV.
 EOMEA transition 4/Au
 Total energy = -108.94716798 a.u.  Excitation energy = 11.2869 eV.
 EOMEA transition 5/Au
 Total energy = -108.93756249 a.u.  Excitation energy = 11.5483 eV.
 EOMEA transition 6/Au
 Total energy = -108.93755933 a.u.  Excitation energy = 11.5484 eV.
 EOMEA transition 7/Au
 Total energy = -108.93711983 a.u.  Excitation energy = 11.5604 eV.
 EOMEA transition 8/Au
 Total energy = -108.93706796 a.u.  Excitation energy = 11.5618 eV.
 EOMEA transition 9/Au
 Total energy = -108.91497978 a.u.  Excitation energy = 12.1628 eV.
 EOMEA transition 10/Au
 Total energy = -108.90753213 a.u.  Excitation energy = 12.3655 eV.
 Excited state properties for  EOMEA-CCSD transition 1/Au
 Excited state properties for  EOMEA-CCSD transition 2/Au
 Excited state properties for  EOMEA-CCSD transition 3/Au
 Excited state properties for  EOMEA-CCSD transition 4/Au
 Excited state properties for  EOMEA-CCSD transition 5/Au
 Excited state properties for  EOMEA-CCSD transition 6/Au
 Excited state properties for  EOMEA-CCSD transition 7/Au
 Excited state properties for  EOMEA-CCSD transition 8/Au
 Excited state properties for  EOMEA-CCSD transition 9/Au
 Excited state properties for  EOMEA-CCSD transition 10/Au

             Orbital Energies (a.u.) and Symmetries
 --------------------------------------------------------------

 Alpha MOs, Restricted
 -- Occupied --
-15.685 -15.682  -1.472  -0.780  -0.635  -0.614  -0.614
  1 Ag    1 B1u   2 Ag    2 B1u   3 Ag    1 B3u   1 B2u

 Beta MOs, Restricted
 -- Occupied --
-15.685 -15.682  -1.472  -0.780  -0.635  -0.614  -0.614
  1 Ag    1 B1u   2 Ag    2 B1u   3 Ag    1 B3u   1 B2u

          Ground-State Mulliken Net Atomic Charges

     Atom                 Charge (a.u.)
  ----------------------------------------
      1 N                    -0.060738
      2 N                    -0.060738
      3 GH                    0.121477
  ----------------------------------------
  Sum of atomic charges =     0.000000

                    Cartesian Multipole Moments
 -----------------------------------------------------------------
    Charge (ESU x 10^10)
                 0.0000
    Dipole Moment (Debye)
         X       0.0000      Y      -0.0000      Z       0.0000
       Tot       0.0000
    Quadrupole Moments (Debye-Ang)
        XX     -10.3959     XY      -0.0000     YY     -10.3959
        XZ       0.0000     YZ       0.0000     ZZ     -11.6464

 Total job time:  336.17s(wall), 2096.69s(cpu)
        *  Thank you very much for using Q-Chem.  Have a nice day.  *
