 Q-Chem 5.3 (devel), Q-Chem, Inc., Pleasanton, CA (2020)
 Q-Chem 5.3.2 for Intel X86 EM64T Linux

User input:
--------------------------------------------------------------
$molecule
0	1
N	 0.0	 0.0	 0.548756750
N	 0.0	 0.0	 -0.548756750
Gh	 0.0	 0.0	 0.0
$end

$rem
JOBTYPE	 sp
METHOD	 eom-ccsd
BASIS	 gen
GUI	 2
EA_STATES	[0,0,5,0,0,0,0,0]
CC_TRANS_PROP 2
STATE_ANALYSIS 1
$end

$basis
N	0
aug-cc-pvtz
****
Gh	0
S   1   1.00
      0.0288000              1.0000000
S   1   1.00
      0.0144000              1.0000000
S   1   1.00
      0.0072000              1.0000000
P   1   1.00
      0.0245500              1.0000000
P   1   1.00
      0.0122750              1.0000000
P   1   1.00
      0.0061375              1.0000000
D   1   1.00
      0.0755000              1.0000000
D   1   1.00
      0.0377500              1.0000000
D   1   1.00
      0.0188750              1.0000000
****
$end
--------------------------------------------------------------

             Standard Nuclear Orientation (Angstroms)
    I     Atom           X                Y                Z
 ----------------------------------------------------------------
    1      N       0.0000000000     0.0000000000     0.5487567500
    2      N       0.0000000000     0.0000000000    -0.5487567500
    3      GH      0.0000000000     0.0000000000     0.0000000000
 ----------------------------------------------------------------

   12    -108.9848674724      1.16e-09  Convergence criterion met
 Total energy in the final basis set =     -108.9848674724
 CCSD total energy          = -109.36195558
        Solving for EOMEA-CCSD/MP2 B2g transitions.
 EOMEA transition 1/B2g
 Total energy = -109.31353915 a.u.  Excitation energy = 1.3175 eV.
 EOMEA transition 2/B2g
 Total energy = -109.26810571 a.u.  Excitation energy = 2.5538 eV.
 EOMEA transition 3/B2g
 Total energy = -109.21019423 a.u.  Excitation energy = 4.1296 eV.
 EOMEA transition 4/B2g
 Total energy = -109.06263866 a.u.  Excitation energy = 8.1448 eV.
 EOMEA transition 5/B2g
 Total energy = -108.99332184 a.u.  Excitation energy = 10.0310 eV.
 Excited state properties for  EOMEA-CCSD transition 1/B2g
 Excited state properties for  EOMEA-CCSD transition 2/B2g
 Excited state properties for  EOMEA-CCSD transition 3/B2g
 Excited state properties for  EOMEA-CCSD transition 4/B2g
 Excited state properties for  EOMEA-CCSD transition 5/B2g

             Orbital Energies (a.u.) and Symmetries
 --------------------------------------------------------------

 Alpha MOs, Restricted
 -- Occupied --
-15.685 -15.682  -1.472  -0.780  -0.635  -0.614  -0.614
  1 Ag    1 B1u   2 Ag    2 B1u   3 Ag    1 B3u   1 B2u

 Beta MOs, Restricted
 -- Occupied --
-15.685 -15.682  -1.472  -0.780  -0.635  -0.614  -0.614
  1 Ag    1 B1u   2 Ag    2 B1u   3 Ag    1 B3u   1 B2u

          Ground-State Mulliken Net Atomic Charges

     Atom                 Charge (a.u.)
  ----------------------------------------
      1 N                    -0.060738
      2 N                    -0.060738
      3 GH                    0.121476
  ----------------------------------------
  Sum of atomic charges =     0.000000

                    Cartesian Multipole Moments
 -----------------------------------------------------------------
    Charge (ESU x 10^10)
                 0.0000
    Dipole Moment (Debye)
         X       0.0000      Y       0.0000      Z      -0.0000
       Tot       0.0000
    Quadrupole Moments (Debye-Ang)
        XX     -10.3959     XY      -0.0000     YY     -10.3959
        XZ       0.0000     YZ       0.0000     ZZ     -11.6464

 Total job time:  54.74s(wall), 356.37s(cpu)
        *  Thank you very much for using Q-Chem.  Have a nice day.  *
