 Q-Chem 5.3 (devel), Q-Chem, Inc., Pleasanton, CA (2020)
 Q-Chem 5.3.2 for Intel X86 EM64T Linux

User input:
--------------------------------------------------------------
$molecule
-1       2
Be        0.0     0.0     0.0
$end

$rem
JOBTYPE  sp
METHOD  cam-b3lyp
BASIS    gen
PURECART 2
MEM_TOTAL        5000
GUI 2
STATE_ANALYSIS 1
wfa_ref_state = 1
CIS_N_ROOTS = 20 Do 15 states
XC_GRID  1
$end

$basis
Be     0
S   6   1.00
      0.1264585690D+04       0.1944757590D-02
      0.1899368060D+03       0.1483505200D-01
      0.4315908900D+02       0.7209054629D-01
      0.1209866270D+02       0.2371541500D+00
      0.3806323220D+01       0.4691986519D+00
      0.1272890300D+01       0.3565202279D+00
SP   3   1.00
      0.3196463098D+01      -0.1126487285D+00       0.5598019980D-01
      0.7478133038D+00      -0.2295064079D+00       0.2615506110D+00
      0.2199663302D+00       0.1186916764D+01       0.7939723389D+00
SP   1   1.00
      0.8230990070D-01       0.1000000000D+01       0.1000000000D+01
SP   1   1.00
      0.2070000000D-01       0.1000000000D+01       0.1000000000D+01
SP   1   1.00
      0.04                   0.1000000000D+01       0.1000000000D+01
D   1   1.00
      0.4000000000D+00       1.0000000
****
$end
--------------------------------------------------------------

             Standard Nuclear Orientation (Angstroms)
    I     Atom           X                Y                Z
 ----------------------------------------------------------------
    1      Be      0.0000000000     0.0000000000     0.0000000000
 ----------------------------------------------------------------

   12     -14.6363550643      8.10e-09  Convergence criterion met
 Total energy in the final basis set =      -14.6363550643

         TDDFT/TDA Excitation Energies
 ---------------------------------------------------

 Excited state   1: excitation energy (eV) =    0.0349
 Total energy for state  1:                   -14.63507414 au
    <S**2>     :  0.7507
    Trans. Mom.:  0.0000 X  -0.0000 Y  -0.0000 Z
    Strength   :     0.0000000000
    S(    1) --> V(    1) amplitude =  0.9053 alpha
    S(    1) --> V(    5) amplitude = -0.4127 alpha

 Excited state   2: excitation energy (eV) =    0.0349
 Total energy for state  2:                   -14.63507413 au
    <S**2>     :  0.7507
    Trans. Mom.:  0.0000 X  -0.0000 Y   0.0000 Z
    Strength   :     0.0000000000
    S(    1) --> V(    2) amplitude =  0.9053 alpha
    S(    1) --> V(    6) amplitude =  0.4127 alpha

 Excited state   3: excitation energy (eV) =    0.5954
 Total energy for state  3:                   -14.61447478 au
    <S**2>     :  0.7563
    Trans. Mom.:  0.0003 X   3.1482 Y   0.0001 Z
    Strength   :     0.1445747962
    S(    1) --> V(    3) amplitude =  0.9957 alpha

 Excited state   4: excitation energy (eV) =    1.3035
 Total energy for state  4:                   -14.58845268 au
    <S**2>     :  0.7507
    Trans. Mom.:  0.0000 X  -0.0000 Y  -0.0000 Z
    Strength   :     0.0000000000
    S(    1) --> V(    1) amplitude =  0.4155 alpha
    S(    1) --> V(    5) amplitude =  0.8965 alpha

 Excited state   5: excitation energy (eV) =    1.3035
 Total energy for state  5:                   -14.58845264 au
    <S**2>     :  0.7507
    Trans. Mom.: -0.0000 X  -0.0000 Y  -0.0000 Z
    Strength   :     0.0000000000
    S(    1) --> V(    2) amplitude = -0.4155 alpha
    S(    1) --> V(    6) amplitude =  0.8965 alpha

 Excited state   6: excitation energy (eV) =    1.4150
 Total energy for state  6:                   -14.58435558 au
    <S**2>     :  0.7583
    Trans. Mom.:  0.0000 X   0.0000 Y  -0.0000 Z
    Strength   :     0.0000000000
    S(    1) --> V(    4) amplitude =  0.9824 alpha

 Excited state   7: excitation energy (eV) =    2.3245
 Total energy for state  7:                   -14.55093273 au
    <S**2>     :  2.7259
    Trans. Mom.:  0.0156 X  -0.0000 Y   0.2453 Z
    Strength   :     0.0034406845
    D(    2) --> V(    1) amplitude = -0.4012 alpha
    D(    2) --> V(    5) amplitude =  0.4655 alpha
    D(    2) --> S(    1) amplitude = -0.5132 beta
    D(    2) --> V(    4) amplitude =  0.5517 beta
    D(    2) --> V(    8) amplitude =  0.1627 beta

 Excited state   8: excitation energy (eV) =    2.3245
 Total energy for state  8:                   -14.55093273 au
    <S**2>     :  2.7259
    Trans. Mom.:  0.2453 X  -0.0000 Y  -0.0156 Z
    Strength   :     0.0034406835
    D(    2) --> V(    2) amplitude =  0.4012 alpha
    D(    2) --> V(    6) amplitude =  0.4655 alpha
    D(    2) --> V(    1) amplitude =  0.5132 beta
    D(    2) --> V(    5) amplitude =  0.5517 beta
    D(    2) --> V(    9) amplitude = -0.1627 beta

 Excited state   9: excitation energy (eV) =    3.0817
 Total energy for state  9:                   -14.52310400 au
    <S**2>     :  1.0487
    Trans. Mom.:  0.0001 X   1.2480 Y   0.0000 Z
    Strength   :     0.1176001400
    D(    2) --> V(    4) amplitude = -0.4294 alpha
    D(    2) --> V(    2) amplitude =  0.7042 beta
    D(    2) --> V(    6) amplitude =  0.5294 beta

 Excited state  10: excitation energy (eV) =    3.7032
 Total energy for state 10:                   -14.50026618 au
    <S**2>     :  2.4251
    Trans. Mom.:  0.0000 X   0.0000 Y   0.0000 Z
    Strength   :     0.0000000000
    D(    2) --> V(    3) amplitude =  0.3886 alpha
    S(    1) --> V(    8) amplitude =  0.1573 alpha
    D(    2) --> V(    3) amplitude =  0.8862 beta

 Excited state  11: excitation energy (eV) =    3.8602
 Total energy for state 11:                   -14.49449484 au
    <S**2>     :  1.0592
    Trans. Mom.: -0.2686 X   0.0000 Y  -1.6316 Z
    Strength   :     0.2585903844
    D(    2) --> V(    1) amplitude = -0.4832 alpha
    D(    2) --> V(    5) amplitude =  0.2085 alpha
    D(    2) --> S(    1) amplitude =  0.8059 beta
    D(    2) --> V(    4) amplitude =  0.1823 beta

 Excited state  12: excitation energy (eV) =    3.8602
 Total energy for state 12:                   -14.49449484 au
    <S**2>     :  1.0592
    Trans. Mom.:  1.6316 X  -0.0001 Y  -0.2686 Z
    Strength   :     0.2585903951
    D(    2) --> V(    2) amplitude = -0.4832 alpha
    D(    2) --> V(    6) amplitude = -0.2085 alpha
    D(    2) --> V(    1) amplitude =  0.8059 beta
    D(    2) --> V(    5) amplitude = -0.1823 beta

 Excited state  13: excitation energy (eV) =    4.0972
 Total energy for state 13:                   -14.48578393 au
    <S**2>     :  2.3989
    Trans. Mom.:  0.0001 X   0.5572 Y   0.0000 Z
    Strength   :     0.0311610651
    D(    2) --> V(    4) amplitude =  0.4867 alpha
    D(    2) --> V(    2) amplitude =  0.7009 beta
    D(    2) --> V(    6) amplitude = -0.4505 beta
    D(    2) --> V(   10) amplitude =  0.1765 beta

 Excited state  14: excitation energy (eV) =    4.3697
 Total energy for state 14:                   -14.47577096 au
    <S**2>     :  1.0565
    Trans. Mom.: -0.0000 X  -0.0000 Y   0.0000 Z
    Strength   :     0.0000000000
    D(    2) --> V(    3) amplitude =  0.9034 alpha
    S(    1) --> V(    8) amplitude = -0.1919 alpha
    D(    2) --> V(    3) amplitude = -0.3610 beta

 Excited state  15: excitation energy (eV) =    4.4953
 Total energy for state 15:                   -14.47115418 au
    <S**2>     :  2.3984
    Trans. Mom.: -1.0374 X   0.0001 Y  -0.1284 Z
    Strength   :     0.1203340275
    D(    2) --> V(    2) amplitude =  0.7563 alpha
    D(    2) --> V(    6) amplitude = -0.2530 alpha
    D(    2) --> V(    1) amplitude =  0.2550 beta
    D(    2) --> V(    5) amplitude = -0.5029 beta

 Excited state  16: excitation energy (eV) =    4.4953
 Total energy for state 16:                   -14.47115418 au
    <S**2>     :  2.3984
    Trans. Mom.: -0.1284 X  -0.0000 Y   1.0374 Z
    Strength   :     0.1203340875
    D(    2) --> V(    1) amplitude =  0.7563 alpha
    D(    2) --> V(    5) amplitude =  0.2530 alpha
    D(    2) --> S(    1) amplitude =  0.2550 beta
    D(    2) --> V(    4) amplitude =  0.5029 beta

 Excited state  17: excitation energy (eV) =    4.6301
 Total energy for state 17:                   -14.46620191 au
    <S**2>     :  0.8005
    Trans. Mom.:  0.0003 X   0.0383 Y   0.0001 Z
    Strength   :     0.0001660503
    S(    1) --> V(    7) amplitude =  0.9845 alpha

 Excited state  18: excitation energy (eV) =    5.2267
 Total energy for state 18:                   -14.44427779 au
    <S**2>     :  0.7509
    Trans. Mom.:  0.0000 X   0.0000 Y  -0.0000 Z
    Strength   :     0.0000000000
    S(    1) --> V(    9) amplitude =  0.9858 alpha

 Excited state  19: excitation energy (eV) =    5.2267
 Total energy for state 19:                   -14.44427776 au
    <S**2>     :  0.7509
    Trans. Mom.:  0.0000 X  -0.0000 Y   0.0000 Z
    Strength   :     0.0000000000
    S(    1) --> V(   10) amplitude =  0.9858 alpha

 Excited state  20: excitation energy (eV) =    5.2789
 Total energy for state 20:                   -14.44235913 au
    <S**2>     :  0.7918
    Trans. Mom.: -0.0000 X   0.0000 Y  -0.0000 Z
    Strength   :     0.0000000000
    S(    1) --> V(    8) amplitude = -0.9510 alpha
    D(    2) --> V(    3) amplitude =  0.2339 beta
    D(    2) --> V(    7) amplitude = -0.1695 beta

 ---------------------------------------------------

                    Orbital Energies (a.u.)
 --------------------------------------------------------------

 Alpha MOs
 -- Occupied --
 -3.9601  -0.1078   0.0332

 Beta MOs
 -- Occupied --
 -3.9587  -0.0900

                    Cartesian Multipole Moments
 -----------------------------------------------------------------
    Charge (ESU x 10^10)
                -4.8032
    Dipole Moment (Debye)
         X       0.0000      Y      -0.0000      Z      -0.0000
       Tot       0.0000
    Quadrupole Moments (Debye-Ang)
        XX     -20.3090     XY      -0.0019     YY     -42.4005
        XZ      -0.0000     YZ      -0.0004     ZZ     -20.3090

 STANDARD THERMODYNAMIC QUANTITIES AT   298.15 K  AND     1.00 ATM

   Translational Enthalpy:        0.889 kcal/mol
   Rotational Enthalpy:           0.000 kcal/mol
   Vibrational Enthalpy:          0.000 kcal/mol
   gas constant (RT):             0.592 kcal/mol
   Translational Entropy:        32.544  cal/mol.K
   Rotational Entropy:            0.000  cal/mol.K
   Vibrational Entropy:           0.000  cal/mol.K

   Total Enthalpy:                1.481 kcal/mol
   Total Entropy:                32.544  cal/mol.K

 Total job time:  1.95s(wall), 8.73s(cpu)
        *  Thank you very much for using Q-Chem.  Have a nice day.  *
