 Q-Chem 5.3 (devel), Q-Chem, Inc., Pleasanton, CA (2020)
 Q-Chem 5.3.2 for Intel X86 EM64T Linux

User input:
--------------------------------------------------------------
$molecule
0       1
Be        0.0     0.0     0.0
$end

$rem
JOBTYPE  sp
METHOD  cam-b3lyp
BASIS    gen
MEM_TOTAL        5000
GUI 2
XC_GRID  1
$end

$basis
Be     0
S   6   1.00
      0.1264585690D+04       0.1944757590D-02
      0.1899368060D+03       0.1483505200D-01
      0.4315908900D+02       0.7209054629D-01
      0.1209866270D+02       0.2371541500D+00
      0.3806323220D+01       0.4691986519D+00
      0.1272890300D+01       0.3565202279D+00
SP   3   1.00
      0.3196463098D+01      -0.1126487285D+00       0.5598019980D-01
      0.7478133038D+00      -0.2295064079D+00       0.2615506110D+00
      0.2199663302D+00       0.1186916764D+01       0.7939723389D+00
SP   1   1.00
      0.8230990070D-01       0.1000000000D+01       0.1000000000D+01
SP   1   1.00
      0.2070000000D-01       0.1000000000D+01       0.1000000000D+01
SP   1   1.00
      0.04                   0.1000000000D+01       0.1000000000D+01
D   1   1.00
      0.4000000000D+00       1.0000000
****
$end
--------------------------------------------------------------

             Standard Nuclear Orientation (Angstroms)
    I     Atom           X                Y                Z
 ----------------------------------------------------------------
    1      Be      0.0000000000     0.0000000000     0.0000000000
 ----------------------------------------------------------------

    5     -14.6477548561      1.47e-06  Convergence criterion met
 Total energy in the final basis set =      -14.6477548561

                    Orbital Energies (a.u.)
 --------------------------------------------------------------

 Alpha MOs
 -- Occupied --
 -4.1507  -0.2817

          Ground-State Mulliken Net Atomic Charges

     Atom                 Charge (a.u.)
  ----------------------------------------
      1 Be                   -0.000000
  ----------------------------------------
  Sum of atomic charges =     0.000000

                    Cartesian Multipole Moments
 -----------------------------------------------------------------
    Charge (ESU x 10^10)
                -0.0000
    Dipole Moment (Debye)
         X       0.0000      Y       0.0000      Z      -0.0000
       Tot       0.0000
    Quadrupole Moments (Debye-Ang)
        XX      -7.5482     XY      -0.0000     YY      -7.5482
        XZ       0.0000     YZ       0.0000     ZZ      -7.5482

 STANDARD THERMODYNAMIC QUANTITIES AT   298.15 K  AND     1.00 ATM

   Translational Enthalpy:        0.889 kcal/mol
   Rotational Enthalpy:           0.000 kcal/mol
   Vibrational Enthalpy:          0.000 kcal/mol
   gas constant (RT):             0.592 kcal/mol
   Translational Entropy:        32.544  cal/mol.K
   Rotational Entropy:            0.000  cal/mol.K
   Vibrational Entropy:           0.000  cal/mol.K

   Total Enthalpy:                1.481 kcal/mol
   Total Entropy:                32.544  cal/mol.K

 Total job time:  0.43s(wall), 2.11s(cpu)
        *  Thank you very much for using Q-Chem.  Have a nice day.  *
