 Q-Chem 5.3 (devel), Q-Chem, Inc., Pleasanton, CA (2020)
 Q-Chem 5.3.2 for Intel X86 EM64T Linux

User input:
--------------------------------------------------------------
$molecule
0	1
N	 0.0	 0.0	 0.548756750
N	 0.0	 0.0	 -0.548756750
Gh	 0.0	 0.0	 0.0
$end

$rem
JOBTYPE	 sp
METHOD   ADC(2)
BASIS    gen
ADC_CAP   1
CAP_TYPE 2
CAP_X   3000
CAP_X_STEP 1000
CAP_X_END  4000
EA_STATES	[0,0,5,0,0,0,0,0]
MEM_TOTAL        100000
XC_GRID  000099000590
$end

$basis
N	0
aug-cc-pvtz
****
Gh	0
S   1   1.00
      0.0288000              1.0000000
S   1   1.00
      0.0144000              1.0000000
S   1   1.00
      0.0072000              1.0000000
P   1   1.00
      0.0245500              1.0000000
P   1   1.00
      0.0122750              1.0000000
P   1   1.00
      0.0061375              1.0000000
D   1   1.00
      0.0755000              1.0000000
D   1   1.00
      0.0377500              1.0000000
D   1   1.00
      0.0188750              1.0000000
****
$end
--------------------------------------------------------------

             Standard Nuclear Orientation (Angstroms)
    I     Atom           X                Y                Z
 ----------------------------------------------------------------
    1      N       0.0000000000     0.0000000000     0.5487567500
    2      N       0.0000000000     0.0000000000    -0.5487567500
    3      GH      0.0000000000     0.0000000000     0.0000000000
 ----------------------------------------------------------------

   12    -108.9848674711      1.15E-09 Convergence criterion met
 Total energy in the final basis set = -108.98486747
  Term symbol:  1 (2) B2g                                   R^2 =  1.23374e-08
  Term symbol:  2 (2) B2g                                   R^2 =  8.22803e-08
  Term symbol:  3 (2) B2g                                   R^2 =  5.96915e-08
  Term symbol:  4 (2) B2g                                   R^2 =  8.36594e-08
  Term symbol:  5 (2) B2g                                   R^2 =  1.88213e-07
  Excitation energy:                                               1.127128 eV
  Excitation energy:                                               2.776500 eV
  Excitation energy:                                               1.649372 eV
  Excitation energy:                                               6.808564 eV
  Excitation energy:                                               5.681435 eV
  Excitation energy:                                               4.032063 eV
  Excitation energy:                                              12.779707 eV
  Excitation energy:                                              11.652579 eV
  Excitation energy:                                              10.003207 eV
  Excitation energy:                                               5.971144 eV

             Orbital Energies (a.u.) and Symmetries
 --------------------------------------------------------------

 Alpha MOs, Restricted
 -- Occupied --
-15.685 -15.682  -1.472  -0.780  -0.635  -0.614  -0.614
  1 Ag    1 B1u   2 Ag    2 B1u   3 Ag    1 B3u   1 B2u

 Beta MOs, Restricted
 -- Occupied --
-15.685 -15.682  -1.472  -0.780  -0.635  -0.614  -0.614
  1 Ag    1 B1u   2 Ag    2 B1u   3 Ag    1 B3u   1 B2u

          Ground-State Mulliken Net Atomic Charges

     Atom                 Charge (a.u.)
  ----------------------------------------
      1 N                    -0.060738
      2 N                    -0.060738
      3 GH                    0.121477
  ----------------------------------------
  Sum of atomic charges =     0.000000

                    Cartesian Multipole Moments
 -----------------------------------------------------------------
    Charge (ESU x 10^10)
                 0.0000
    Dipole Moment (Debye)
         X       0.0000      Y       0.0000      Z      -0.0000
       Tot       0.0000
    Quadrupole Moments (Debye-Ang)
        XX     -10.3959     XY      -0.0000     YY     -10.3959
        XZ       0.0000     YZ       0.0000     ZZ     -11.6464

 Total job time:  47.10s(wall), 143.49s(cpu)
        *  Thank you very much for using Q-Chem.  Have a nice day.  *
